 Gaussian 16, Revision A.03,
 Gaussian 16:  ES64L-G16RevA.03 25-Dec-2016

 --------------------------------------------------------
 #P M062X/Gen field=X-8 int=(grid=ultrafine) polar=Dipole
 --------------------------------------------------------

 ------------
 c4mpyr_eGeom
 ------------
 Symbolic Z-matrix:
 Charge =  1 Multiplicity = 1

                         Standard orientation:
 ---------------------------------------------------------------------
 Center     Atomic      Atomic             Coordinates (Angstroms)
 Number     Number       Type             X           Y           Z
 ---------------------------------------------------------------------
      1          6           0        2.068148   -0.836663   -0.439403
      2          6           0        2.764771    0.478088   -0.739315
      3          6           0        2.224295    1.396812    0.348594
      4          1           0        2.488263    0.848413   -1.726709
      5          1           0        3.845029    0.364149   -0.714722
      6          6           0        0.752388    1.037353    0.364768
      7          1           0        2.368087    2.452612    0.135668
      8          1           0        2.693086    1.182873    1.309925
      9          7           0        0.699480   -0.469681    0.147274
     10          1           0        0.231460    1.503279   -0.466785
     11          1           0        0.231646    1.279626    1.284742
     12          1           0        2.601338   -1.401484    0.320605
     13          1           0        1.918126   -1.474004   -1.304384
     14          6           0        0.511614   -1.164642    1.450942
     15          1           0       -0.443141   -0.879203    1.879999
     16          1           0        1.314875   -0.871554    2.121361
     17          1           0        0.540819   -2.239135    1.287559
     18          6           0       -0.379821   -0.881614   -0.834408
     19          6           0       -1.828647   -0.754423   -0.392509
     20          1           0       -0.175222   -1.926590   -1.061755
     21          1           0       -0.191553   -0.297435   -1.735167
     22          6           0       -2.382049    0.639422   -0.109008
     23          1           0       -2.026607   -1.416786    0.452316
     24          1           0       -2.393385   -1.184638   -1.223644
     25          6           0       -3.896189    0.612867    0.057110
     26          1           0       -2.115685    1.313982   -0.927078
     27          1           0       -1.936118    1.053842    0.797198
     28          1           0       -4.382792    0.255715   -0.850656
     29          1           0       -4.281971    1.606786    0.274771
     30          1           0       -4.189676   -0.045886    0.875208
 ---------------------------------------------------------------------

 SCF Done:  E(RM062X) =  -409.404238062     A.U. after   13 cycles

 The electronic state is 1-A.
 Alpha  occ. eigenvalues --  -15.02502 -10.75410 -10.75347 -10.75205 -10.75150
 Alpha  occ. eigenvalues --  -10.70283 -10.70224 -10.69586 -10.67918 -10.65316
 Alpha  occ. eigenvalues --   -1.28271  -1.08139  -1.04434  -1.01135  -0.98928
 Alpha  occ. eigenvalues --   -0.95307  -0.88317  -0.84901  -0.83746  -0.81044
 Alpha  occ. eigenvalues --   -0.76353  -0.74842  -0.71729  -0.69294  -0.68814
 Alpha  occ. eigenvalues --   -0.66555  -0.65827  -0.63462  -0.62702  -0.61536
 Alpha  occ. eigenvalues --   -0.61515  -0.59054  -0.58067  -0.57447  -0.57127
 Alpha  occ. eigenvalues --   -0.56884  -0.55318  -0.53313  -0.52483  -0.52284
 Alpha virt. eigenvalues --   -0.12322  -0.10995  -0.10670  -0.10204  -0.08645
 Alpha virt. eigenvalues --   -0.08419  -0.08344  -0.08014  -0.07919  -0.06862
 Alpha virt. eigenvalues --   -0.05987  -0.05520  -0.05313  -0.05201  -0.04896

 Mulliken charges:
               1
     1  C    0.789502
     2  C    3.253850
     3  C    3.661507
     4  H   -0.707822
     5  H   -0.831864
     6  C   -0.115989
     7  H   -0.631457
     8  H   -0.688232
     9  N   -1.319584
    10  H   -1.487385
    11  H   -0.636160
    12  H   -0.869089
    13  H   -0.558885
    14  C    3.448818
    15  H   -0.834306
    16  H   -0.868206
    17  H   -0.681209
    18  C    0.715710
    19  C    2.681353
    20  H   -1.081057
    21  H   -1.220064
    22  C    0.027642
    23  H   -1.104012
    24  H   -0.898350
    25  C    4.870865
    26  H   -0.936771
    27  H   -0.867458
    28  H   -0.718086
    29  H   -0.594538
    30  H   -0.798721
 Sum of Mulliken charges =   1.00000

 Dipole moment (field-independent basis, Debye):
    X=              3.0379    Y=             -1.1594    Z=              0.3909  Tot=              3.2750
 Quadrupole moment (field-independent basis, Debye-Ang):
   XX=            -44.6358   YY=            -55.0387   ZZ=            -56.5787
   XY=              0.0935   XZ=              0.5677   YZ=             -0.5024

  Exact polarizability: 124.501   0.818 100.883  -1.482   0.690  94.786
 Approx polarizability: 128.336   0.669 124.989  -0.458   0.410 123.297

 Normal termination of Gaussian 16 at Mon Oct 31 15:30:46 2022.
