 Gaussian 16, Revision A.03,
 Gaussian 16:  ES64L-G16RevA.03 25-Dec-2016

 --------------------------------------------------------
 #P M062X/Gen field=Z-8 int=(grid=ultrafine) polar=Dipole
 --------------------------------------------------------

 ------------
 c4mpyr_eGeom
 ------------
 Symbolic Z-matrix:
 Charge =  1 Multiplicity = 1

                         Standard orientation:
 ---------------------------------------------------------------------
 Center     Atomic      Atomic             Coordinates (Angstroms)
 Number     Number       Type             X           Y           Z
 ---------------------------------------------------------------------
      1          6           0        2.068148   -0.836663   -0.439403
      2          6           0        2.764771    0.478088   -0.739315
      3          6           0        2.224295    1.396812    0.348594
      4          1           0        2.488263    0.848413   -1.726709
      5          1           0        3.845029    0.364149   -0.714722
      6          6           0        0.752388    1.037353    0.364768
      7          1           0        2.368087    2.452612    0.135668
      8          1           0        2.693086    1.182873    1.309925
      9          7           0        0.699480   -0.469681    0.147274
     10          1           0        0.231460    1.503279   -0.466785
     11          1           0        0.231646    1.279626    1.284742
     12          1           0        2.601338   -1.401484    0.320605
     13          1           0        1.918126   -1.474004   -1.304384
     14          6           0        0.511614   -1.164642    1.450942
     15          1           0       -0.443141   -0.879203    1.879999
     16          1           0        1.314875   -0.871554    2.121361
     17          1           0        0.540819   -2.239135    1.287559
     18          6           0       -0.379821   -0.881614   -0.834408
     19          6           0       -1.828647   -0.754423   -0.392509
     20          1           0       -0.175222   -1.926590   -1.061755
     21          1           0       -0.191553   -0.297435   -1.735167
     22          6           0       -2.382049    0.639422   -0.109008
     23          1           0       -2.026607   -1.416786    0.452316
     24          1           0       -2.393385   -1.184638   -1.223644
     25          6           0       -3.896189    0.612867    0.057110
     26          1           0       -2.115685    1.313982   -0.927078
     27          1           0       -1.936118    1.053842    0.797198
     28          1           0       -4.382792    0.255715   -0.850656
     29          1           0       -4.281971    1.606786    0.274771
     30          1           0       -4.189676   -0.045886    0.875208
 ---------------------------------------------------------------------

 SCF Done:  E(RM062X) =  -409.403476095     A.U. after   13 cycles

 The electronic state is 1-A.
 Alpha  occ. eigenvalues --  -15.02575 -10.75451 -10.75434 -10.75283 -10.75224
 Alpha  occ. eigenvalues --  -10.70587 -10.70490 -10.69417 -10.67648 -10.64849
 Alpha  occ. eigenvalues --   -1.28347  -1.08288  -1.04335  -1.01291  -0.98817
 Alpha  occ. eigenvalues --   -0.95254  -0.88221  -0.85125  -0.83786  -0.80799
 Alpha  occ. eigenvalues --   -0.76425  -0.74915  -0.71793  -0.69322  -0.68940
 Alpha  occ. eigenvalues --   -0.66614  -0.65715  -0.63457  -0.62598  -0.61524
 Alpha  occ. eigenvalues --   -0.61494  -0.59161  -0.57979  -0.57578  -0.57322
 Alpha  occ. eigenvalues --   -0.56731  -0.55526  -0.53055  -0.52180  -0.51959
 Alpha virt. eigenvalues --   -0.12463  -0.11087  -0.10706  -0.10255  -0.08684
 Alpha virt. eigenvalues --   -0.08587  -0.08278  -0.08062  -0.07900  -0.06841
 Alpha virt. eigenvalues --   -0.05789  -0.05527  -0.05330  -0.05117  -0.04943

 Mulliken charges:
               1
     1  C    0.792783
     2  C    3.259319
     3  C    3.660245
     4  H   -0.711422
     5  H   -0.837126
     6  C   -0.120429
     7  H   -0.632638
     8  H   -0.687062
     9  N   -1.321090
    10  H   -1.489094
    11  H   -0.632224
    12  H   -0.867533
    13  H   -0.560676
    14  C    3.445205
    15  H   -0.829395
    16  H   -0.868711
    17  H   -0.682564
    18  C    0.714673
    19  C    2.683009
    20  H   -1.082638
    21  H   -1.224681
    22  C    0.032496
    23  H   -1.099015
    24  H   -0.898778
    25  C    4.866142
    26  H   -0.939932
    27  H   -0.864640
    28  H   -0.718502
    29  H   -0.592303
    30  H   -0.793420
 Sum of Mulliken charges =   1.00000

 Dipole moment (field-independent basis, Debye):
    X=              2.7816    Y=             -1.1597    Z=              0.5867  Tot=              3.0702
 Quadrupole moment (field-independent basis, Debye-Ang):
   XX=            -44.5287   YY=            -55.0412   ZZ=            -56.5806
   XY=              0.0487   XZ=              0.5685   YZ=             -0.5048

  Exact polarizability: 124.530   0.812 100.881  -1.479   0.692  94.788
 Approx polarizability: 128.372   0.654 124.992  -0.455   0.417 123.302

 Normal termination of Gaussian 16 at Mon Oct 31 15:29:14 2022.
