 Gaussian 16, Revision A.03,
 Gaussian 16:  ES64L-G16RevA.03 25-Dec-2016

 --------------------------------------------------------
 #P M062X/Gen field=Y+8 int=(grid=ultrafine) polar=Dipole
 --------------------------------------------------------

 ------------
 c4mpyr_eGeom
 ------------
 Symbolic Z-matrix:
 Charge =  1 Multiplicity = 1

                         Standard orientation:
 ---------------------------------------------------------------------
 Center     Atomic      Atomic             Coordinates (Angstroms)
 Number     Number       Type             X           Y           Z
 ---------------------------------------------------------------------
      1          6           0        2.068148   -0.836663   -0.439403
      2          6           0        2.764771    0.478088   -0.739315
      3          6           0        2.224295    1.396812    0.348594
      4          1           0        2.488263    0.848413   -1.726709
      5          1           0        3.845029    0.364149   -0.714722
      6          6           0        0.752388    1.037353    0.364768
      7          1           0        2.368087    2.452612    0.135668
      8          1           0        2.693086    1.182873    1.309925
      9          7           0        0.699480   -0.469681    0.147274
     10          1           0        0.231460    1.503279   -0.466785
     11          1           0        0.231646    1.279626    1.284742
     12          1           0        2.601338   -1.401484    0.320605
     13          1           0        1.918126   -1.474004   -1.304384
     14          6           0        0.511614   -1.164642    1.450942
     15          1           0       -0.443141   -0.879203    1.879999
     16          1           0        1.314875   -0.871554    2.121361
     17          1           0        0.540819   -2.239135    1.287559
     18          6           0       -0.379821   -0.881614   -0.834408
     19          6           0       -1.828647   -0.754423   -0.392509
     20          1           0       -0.175222   -1.926590   -1.061755
     21          1           0       -0.191553   -0.297435   -1.735167
     22          6           0       -2.382049    0.639422   -0.109008
     23          1           0       -2.026607   -1.416786    0.452316
     24          1           0       -2.393385   -1.184638   -1.223644
     25          6           0       -3.896189    0.612867    0.057110
     26          1           0       -2.115685    1.313982   -0.927078
     27          1           0       -1.936118    1.053842    0.797198
     28          1           0       -4.382792    0.255715   -0.850656
     29          1           0       -4.281971    1.606786    0.274771
     30          1           0       -4.189676   -0.045886    0.875208
 ---------------------------------------------------------------------

 SCF Done:  E(RM062X) =  -409.403719482     A.U. after   17 cycles

 The electronic state is 1-A.
 Alpha  occ. eigenvalues --  -15.02552 -10.75357 -10.75330 -10.75304 -10.75292
 Alpha  occ. eigenvalues --  -10.70646 -10.70566 -10.69315 -10.67690 -10.64918
 Alpha  occ. eigenvalues --   -1.28326  -1.08299  -1.04302  -1.01295  -0.98816
 Alpha  occ. eigenvalues --   -0.95265  -0.88218  -0.85139  -0.83797  -0.80814
 Alpha  occ. eigenvalues --   -0.76409  -0.74907  -0.71789  -0.69297  -0.68911
 Alpha  occ. eigenvalues --   -0.66635  -0.65739  -0.63431  -0.62585  -0.61527
 Alpha  occ. eigenvalues --   -0.61507  -0.59180  -0.57966  -0.57624  -0.57351
 Alpha  occ. eigenvalues --   -0.56699  -0.55568  -0.53067  -0.52202  -0.51992
 Alpha virt. eigenvalues --   -0.12398  -0.11079  -0.10630  -0.10298  -0.08637
 Alpha virt. eigenvalues --   -0.08471  -0.08286  -0.08065  -0.07934  -0.06885
 Alpha virt. eigenvalues --   -0.05841  -0.05521  -0.05387  -0.05126  -0.04919

 Mulliken charges:
               1
     1  C    0.788520
     2  C    3.257167
     3  C    3.666788
     4  H   -0.709240
     5  H   -0.836360
     6  C   -0.122358
     7  H   -0.636000
     8  H   -0.690761
     9  N   -1.314559
    10  H   -1.488375
    11  H   -0.636778
    12  H   -0.868348
    13  H   -0.556647
    14  C    3.446868
    15  H   -0.832186
    16  H   -0.872313
    17  H   -0.677387
    18  C    0.714162
    19  C    2.675322
    20  H   -1.078119
    21  H   -1.223345
    22  C    0.034039
    23  H   -1.099270
    24  H   -0.893801
    25  C    4.867517
    26  H   -0.939941
    27  H   -0.870286
    28  H   -0.713809
    29  H   -0.596234
    30  H   -0.794267
 Sum of Mulliken charges =   1.00000

 Dipole moment (field-independent basis, Debye):
    X=              2.7829    Y=             -1.3662    Z=              0.3926  Tot=              3.1250
 Quadrupole moment (field-independent basis, Debye-Ang):
   XX=            -44.5673   YY=            -55.0614   ZZ=            -56.5713
   XY=              0.0637   XZ=              0.5831   YZ=             -0.5026

  Exact polarizability: 124.521   0.805 100.870  -1.484   0.685  94.779
 Approx polarizability: 128.360   0.653 124.958  -0.457   0.406 123.289

 Normal termination of Gaussian 16 at Mon Oct 31 15:31:33 2022.
