 Gaussian 16, Revision A.03,
 Gaussian 16:  ES64L-G16RevA.03 25-Dec-2016

 --------------------------------------------------------
 #P M062X/Gen field=X+8 int=(grid=ultrafine) polar=Dipole
 --------------------------------------------------------

 ------------
 c4mpyr_eGeom
 ------------
 Symbolic Z-matrix:
 Charge =  1 Multiplicity = 1

                         Standard orientation:
 ---------------------------------------------------------------------
 Center     Atomic      Atomic             Coordinates (Angstroms)
 Number     Number       Type             X           Y           Z
 ---------------------------------------------------------------------
      1          6           0        2.068148   -0.836663   -0.439403
      2          6           0        2.764771    0.478088   -0.739315
      3          6           0        2.224295    1.396812    0.348594
      4          1           0        2.488263    0.848413   -1.726709
      5          1           0        3.845029    0.364149   -0.714722
      6          6           0        0.752388    1.037353    0.364768
      7          1           0        2.368087    2.452612    0.135668
      8          1           0        2.693086    1.182873    1.309925
      9          7           0        0.699480   -0.469681    0.147274
     10          1           0        0.231460    1.503279   -0.466785
     11          1           0        0.231646    1.279626    1.284742
     12          1           0        2.601338   -1.401484    0.320605
     13          1           0        1.918126   -1.474004   -1.304384
     14          6           0        0.511614   -1.164642    1.450942
     15          1           0       -0.443141   -0.879203    1.879999
     16          1           0        1.314875   -0.871554    2.121361
     17          1           0        0.540819   -2.239135    1.287559
     18          6           0       -0.379821   -0.881614   -0.834408
     19          6           0       -1.828647   -0.754423   -0.392509
     20          1           0       -0.175222   -1.926590   -1.061755
     21          1           0       -0.191553   -0.297435   -1.735167
     22          6           0       -2.382049    0.639422   -0.109008
     23          1           0       -2.026607   -1.416786    0.452316
     24          1           0       -2.393385   -1.184638   -1.223644
     25          6           0       -3.896189    0.612867    0.057110
     26          1           0       -2.115685    1.313982   -0.927078
     27          1           0       -1.936118    1.053842    0.797198
     28          1           0       -4.382792    0.255715   -0.850656
     29          1           0       -4.281971    1.606786    0.274771
     30          1           0       -4.189676   -0.045886    0.875208
 ---------------------------------------------------------------------

 SCF Done:  E(RM062X) =  -409.402485155     A.U. after   13 cycles

 The electronic state is 1-A.
 Alpha  occ. eigenvalues --  -15.02677 -10.75632 -10.75479 -10.75354 -10.75326
 Alpha  occ. eigenvalues --  -10.70820 -10.70757 -10.69173 -10.67348 -10.64387
 Alpha  occ. eigenvalues --   -1.28452  -1.08423  -1.04208  -1.01444  -0.98768
 Alpha  occ. eigenvalues --   -0.95230  -0.88105  -0.85314  -0.83848  -0.80528
 Alpha  occ. eigenvalues --   -0.76530  -0.74996  -0.71898  -0.69360  -0.69031
 Alpha  occ. eigenvalues --   -0.66716  -0.65645  -0.63447  -0.62528  -0.61589
 Alpha  occ. eigenvalues --   -0.61520  -0.59279  -0.57956  -0.57715  -0.57361
 Alpha  occ. eigenvalues --   -0.56539  -0.55674  -0.52758  -0.51839  -0.51604
 Alpha virt. eigenvalues --   -0.12609  -0.11149  -0.10813  -0.10488  -0.08716
 Alpha virt. eigenvalues --   -0.08615  -0.08398  -0.08242  -0.07787  -0.06962
 Alpha virt. eigenvalues --   -0.05735  -0.05566  -0.05248  -0.05078  -0.04966

 Mulliken charges:
               1
     1  C    0.791737
     2  C    3.261276
     3  C    3.664511
     4  H   -0.708231
     5  H   -0.840414
     6  C   -0.125347
     7  H   -0.634041
     8  H   -0.692658
     9  N   -1.320026
    10  H   -1.483179
    11  H   -0.633207
    12  H   -0.872631
    13  H   -0.558377
    14  C    3.448857
    15  H   -0.828209
    16  H   -0.874933
    17  H   -0.682173
    18  C    0.708753
    19  C    2.680621
    20  H   -1.082666
    21  H   -1.221638
    22  C    0.037279
    23  H   -1.101004
    24  H   -0.893438
    25  C    4.861617
    26  H   -0.936830
    27  H   -0.867842
    28  H   -0.712012
    29  H   -0.591350
    30  H   -0.794445
 Sum of Mulliken charges =   1.00000

 Dipole moment (field-independent basis, Debye):
    X=              2.5314    Y=             -1.1628    Z=              0.3971  Tot=              2.8138
 Quadrupole moment (field-independent basis, Debye-Ang):
   XX=            -44.4013   YY=            -55.0553   ZZ=            -56.5874
   XY=              0.0132   XZ=              0.5929   YZ=             -0.4969

  Exact polarizability: 124.563   0.804 100.870  -1.483   0.686  94.779
 Approx polarizability: 128.422   0.636 124.991  -0.454   0.406 123.300

 Normal termination of Gaussian 16 at Mon Oct 31 15:29:50 2022.
