 Gaussian 16, Revision A.03,
 Gaussian 16:  ES64L-G16RevA.03 25-Dec-2016

 --------------------------------------------------------
 #P M062X/Gen field=Y-8 int=(grid=ultrafine) polar=Dipole
 --------------------------------------------------------

 ------------
 c4mpyr_eGeom
 ------------
 Symbolic Z-matrix:
 Charge =  1 Multiplicity = 1

                         Standard orientation:
 ---------------------------------------------------------------------
 Center     Atomic      Atomic             Coordinates (Angstroms)
 Number     Number       Type             X           Y           Z
 ---------------------------------------------------------------------
      1          6           0        2.068148   -0.836663   -0.439403
      2          6           0        2.764771    0.478088   -0.739315
      3          6           0        2.224295    1.396812    0.348594
      4          1           0        2.488263    0.848413   -1.726709
      5          1           0        3.845029    0.364149   -0.714722
      6          6           0        0.752388    1.037353    0.364768
      7          1           0        2.368087    2.452612    0.135668
      8          1           0        2.693086    1.182873    1.309925
      9          7           0        0.699480   -0.469681    0.147274
     10          1           0        0.231460    1.503279   -0.466785
     11          1           0        0.231646    1.279626    1.284742
     12          1           0        2.601338   -1.401484    0.320605
     13          1           0        1.918126   -1.474004   -1.304384
     14          6           0        0.511614   -1.164642    1.450942
     15          1           0       -0.443141   -0.879203    1.879999
     16          1           0        1.314875   -0.871554    2.121361
     17          1           0        0.540819   -2.239135    1.287559
     18          6           0       -0.379821   -0.881614   -0.834408
     19          6           0       -1.828647   -0.754423   -0.392509
     20          1           0       -0.175222   -1.926590   -1.061755
     21          1           0       -0.191553   -0.297435   -1.735167
     22          6           0       -2.382049    0.639422   -0.109008
     23          1           0       -2.026607   -1.416786    0.452316
     24          1           0       -2.393385   -1.184638   -1.223644
     25          6           0       -3.896189    0.612867    0.057110
     26          1           0       -2.115685    1.313982   -0.927078
     27          1           0       -1.936118    1.053842    0.797198
     28          1           0       -4.382792    0.255715   -0.850656
     29          1           0       -4.281971    1.606786    0.274771
     30          1           0       -4.189676   -0.045886    0.875208
 ---------------------------------------------------------------------

 SCF Done:  E(RM062X) =  -409.402988582     A.U. after   13 cycles

 The electronic state is 1-A.
 Alpha  occ. eigenvalues --  -15.02628 -10.75522 -10.75481 -10.75444 -10.75175
 Alpha  occ. eigenvalues --  -10.70478 -10.70394 -10.69443 -10.67576 -10.64784
 Alpha  occ. eigenvalues --   -1.28398  -1.08255  -1.04343  -1.01282  -0.98875
 Alpha  occ. eigenvalues --   -0.95277  -0.88200  -0.85074  -0.83805  -0.80761
 Alpha  occ. eigenvalues --   -0.76469  -0.74933  -0.71838  -0.69329  -0.68948
 Alpha  occ. eigenvalues --   -0.66623  -0.65739  -0.63484  -0.62632  -0.61594
 Alpha  occ. eigenvalues --   -0.61536  -0.59143  -0.57945  -0.57521  -0.57253
 Alpha  occ. eigenvalues --   -0.56725  -0.55454  -0.53013  -0.52129  -0.51904
 Alpha virt. eigenvalues --   -0.12565  -0.11037  -0.10806  -0.10378  -0.08648
 Alpha virt. eigenvalues --   -0.08601  -0.08433  -0.08067  -0.07847  -0.06928
 Alpha virt. eigenvalues --   -0.05788  -0.05496  -0.05318  -0.04997  -0.04926

 Mulliken charges:
               1
     1  C    0.792748
     2  C    3.257971
     3  C    3.659200
     4  H   -0.706823
     5  H   -0.835863
     6  C   -0.118876
     7  H   -0.629517
     8  H   -0.690132
     9  N   -1.325110
    10  H   -1.482204
    11  H   -0.632560
    12  H   -0.873364
    13  H   -0.560596
    14  C    3.450924
    15  H   -0.830515
    16  H   -0.870795
    17  H   -0.686051
    18  C    0.710264
    19  C    2.686676
    20  H   -1.085603
    21  H   -1.218343
    22  C    0.030986
    23  H   -1.105793
    24  H   -0.897985
    25  C    4.864885
    26  H   -0.933681
    27  H   -0.865010
    28  H   -0.716260
    29  H   -0.589677
    30  H   -0.798900
 Sum of Mulliken charges =   1.00000

 Dipole moment (field-independent basis, Debye):
    X=              2.7864    Y=             -0.9560    Z=              0.3954  Tot=              2.9722
 Quadrupole moment (field-independent basis, Debye-Ang):
   XX=            -44.4676   YY=            -55.0343   ZZ=            -56.5946
   XY=              0.0430   XZ=              0.5774   YZ=             -0.4968

  Exact polarizability: 124.535   0.816 100.889  -1.479   0.690  94.785
 Approx polarizability: 128.389   0.652 125.027  -0.454   0.411 123.307

 Normal termination of Gaussian 16 at Mon Oct 31 15:30:44 2022.
