 Gaussian 16, Revision A.03,
 Gaussian 16:  ES64L-G16RevA.03 25-Dec-2016

 --------------------------------------------------------
 #P M062X/Gen field=Z+8 int=(grid=ultrafine) polar=Dipole
 --------------------------------------------------------

 ------------
 c4mpyr_eGeom
 ------------
 Symbolic Z-matrix:
 Charge =  1 Multiplicity = 1

                         Standard orientation:
 ---------------------------------------------------------------------
 Center     Atomic      Atomic             Coordinates (Angstroms)
 Number     Number       Type             X           Y           Z
 ---------------------------------------------------------------------
      1          6           0        2.068148   -0.836663   -0.439403
      2          6           0        2.764771    0.478088   -0.739315
      3          6           0        2.224295    1.396812    0.348594
      4          1           0        2.488263    0.848413   -1.726709
      5          1           0        3.845029    0.364149   -0.714722
      6          6           0        0.752388    1.037353    0.364768
      7          1           0        2.368087    2.452612    0.135668
      8          1           0        2.693086    1.182873    1.309925
      9          7           0        0.699480   -0.469681    0.147274
     10          1           0        0.231460    1.503279   -0.466785
     11          1           0        0.231646    1.279626    1.284742
     12          1           0        2.601338   -1.401484    0.320605
     13          1           0        1.918126   -1.474004   -1.304384
     14          6           0        0.511614   -1.164642    1.450942
     15          1           0       -0.443141   -0.879203    1.879999
     16          1           0        1.314875   -0.871554    2.121361
     17          1           0        0.540819   -2.239135    1.287559
     18          6           0       -0.379821   -0.881614   -0.834408
     19          6           0       -1.828647   -0.754423   -0.392509
     20          1           0       -0.175222   -1.926590   -1.061755
     21          1           0       -0.191553   -0.297435   -1.735167
     22          6           0       -2.382049    0.639422   -0.109008
     23          1           0       -2.026607   -1.416786    0.452316
     24          1           0       -2.393385   -1.184638   -1.223644
     25          6           0       -3.896189    0.612867    0.057110
     26          1           0       -2.115685    1.313982   -0.927078
     27          1           0       -1.936118    1.053842    0.797198
     28          1           0       -4.382792    0.255715   -0.850656
     29          1           0       -4.281971    1.606786    0.274771
     30          1           0       -4.189676   -0.045886    0.875208
 ---------------------------------------------------------------------

 SCF Done:  E(RM062X) =  -409.403228070     A.U. after   13 cycles

 The electronic state is 1-A.
 Alpha  occ. eigenvalues --  -15.02604 -10.75543 -10.75387 -10.75302 -10.75281
 Alpha  occ. eigenvalues --  -10.70550 -10.70458 -10.69342 -10.67618 -10.64853
 Alpha  occ. eigenvalues --   -1.28376  -1.08265  -1.04309  -1.01286  -0.98874
 Alpha  occ. eigenvalues --   -0.95287  -0.88197  -0.85088  -0.83816  -0.80776
 Alpha  occ. eigenvalues --   -0.76454  -0.74924  -0.71835  -0.69302  -0.68919
 Alpha  occ. eigenvalues --   -0.66646  -0.65764  -0.63458  -0.62615  -0.61585
 Alpha  occ. eigenvalues --   -0.61562  -0.59163  -0.57930  -0.57566  -0.57285
 Alpha  occ. eigenvalues --   -0.56693  -0.55498  -0.53025  -0.52152  -0.51937
 Alpha virt. eigenvalues --   -0.12530  -0.10961  -0.10735  -0.10457  -0.08649
 Alpha virt. eigenvalues --   -0.08553  -0.08337  -0.08084  -0.07850  -0.06963
 Alpha virt. eigenvalues --   -0.05806  -0.05529  -0.05331  -0.05084  -0.04901

 Mulliken charges:
               1
     1  C    0.788528
     2  C    3.255918
     3  C    3.665771
     4  H   -0.704689
     5  H   -0.835101
     6  C   -0.120989
     7  H   -0.632869
     8  H   -0.693857
     9  N   -1.318589
    10  H   -1.481459
    11  H   -0.637160
    12  H   -0.874171
    13  H   -0.556668
    14  C    3.452591
    15  H   -0.833223
    16  H   -0.874467
    17  H   -0.680797
    18  C    0.709922
    19  C    2.678773
    20  H   -1.081038
    21  H   -1.216903
    22  C    0.032334
    23  H   -1.105904
    24  H   -0.893091
    25  C    4.866374
    26  H   -0.933690
    27  H   -0.870631
    28  H   -0.711583
    29  H   -0.593576
    30  H   -0.799756
 Sum of Mulliken charges =   1.00000

 Dipole moment (field-independent basis, Debye):
    X=              2.7877    Y=             -1.1625    Z=              0.2013  Tot=              3.0271
 Quadrupole moment (field-independent basis, Debye-Ang):
   XX=            -44.5062   YY=            -55.0527   ZZ=            -56.5868
   XY=              0.0580   XZ=              0.5919   YZ=             -0.4945

  Exact polarizability: 124.530   0.808 100.874  -1.485   0.685  94.782
 Approx polarizability: 128.376   0.651 124.986  -0.456   0.399 123.299

 Normal termination of Gaussian 16 at Mon Oct 31 15:36:47 2022.
